    -----------------------------------------------------------------------
          Psi4: An Open-Source Ab Initio Electronic Structure Package
                              Psi4 0.3.200 Driver

                          Git: Rev {master} cc67b7b 

    J. M. Turney, A. C. Simmonett, R. M. Parrish, E. G. Hohenstein,
    F. A. Evangelista, J. T. Fermann, B. J. Mintz, L. A. Burns, J. J. Wilke,
    M. L. Abrams, N. J. Russ, M. L. Leininger, C. L. Janssen, E. T. Seidl,
    W. D. Allen, H. F. Schaefer, R. A. King, E. F. Valeev, C. D. Sherrill,
    and T. D. Crawford, WIREs Comput. Mol. Sci. 2, 556-565 (2012)
    (doi: 10.1002/wcms.93)

                         Additional Contributions by
    A. E. DePrince, M. Saitow, U. Bozkaya, A. Yu. Sokolov
    -----------------------------------------------------------------------


    Psi4 started on: Sat Nov 14 15:53:38 2015

    Process ID:   4453
    PSI4DATADIR: /home/avcopan/Documents/code/github/psi4/lib
    Memory level set to 256.000 MB

  ==> Input File <==

--------------------------------------------------------------------------
molecule {
  1 2
  O 
  H 1 0.96
  H 1 0.96 2 104.5
}

set basis cc-pvdz
set reference uhf
set scf_type pk
set df_scf_guess false
energy('scf')


from h2o_alt import water_mp2_script

scfwfn = psi4.wavefunction()
mints  = psi4.MintsHelper()

water_mp2_script(scfwfn, mints)


energy('cepa0')
--------------------------------------------------------------------------

*** tstart() called on knut
*** at Sat Nov 14 15:53:38 2015


         ---------------------------------------------------------
                                   SCF
            by Justin Turney, Rob Parrish, and Andy Simmonett
                              UHF Reference
                        1 Threads,    256 MiB Core
         ---------------------------------------------------------

  ==> Geometry <==

    Molecular point group: c2v
    Full point group: C2v

    Geometry (in Angstrom), charge = 1, multiplicity = 2:

       Center              X                  Y                   Z               Mass       
    ------------   -----------------  -----------------  -----------------  -----------------
           O          0.000000000000     0.000000000000    -0.065775570538    15.994914619560
           H          0.000000000000    -0.759061990794     0.521953018295     1.007825032070
           H          0.000000000000     0.759061990794     0.521953018295     1.007825032070

  Running in c2v symmetry.

  Rotational constants: A =     27.26297  B =     14.51533  C =      9.47217 [cm^-1]
  Rotational constants: A = 817323.20514  B = 435158.59817  C = 283968.37324 [MHz]
  Nuclear repulsion =    9.168193260387573

  Charge       = 1
  Multiplicity = 2
  Electrons    = 9
  Nalpha       = 5
  Nbeta        = 4

  ==> Algorithm <==

  SCF Algorithm Type is PK.
  DIIS enabled.
  MOM disabled.
  Fractional occupation disabled.
  Guess Type is CORE.
  Energy threshold   = 1.00e-06
  Density threshold  = 1.00e-06
  Integral threshold = 0.00e+00

  ==> Primary Basis <==

  Basis Set: CC-PVDZ
    Number of shells: 12
    Number of basis function: 24
    Number of Cartesian functions: 25
    Spherical Harmonics?: true
    Max angular momentum: 2

  ==> Pre-Iterations <==

   -------------------------------------------------------
    Irrep   Nso     Nmo     Nalpha   Nbeta   Ndocc  Nsocc
   -------------------------------------------------------
     A1        11      11       0       0       0       0
     A2         2       2       0       0       0       0
     B1         4       4       0       0       0       0
     B2         7       7       0       0       0       0
   -------------------------------------------------------
    Total      24      24       5       4       4       1
   -------------------------------------------------------

 OEINTS: Overlap, kinetic, potential, dipole, and quadrupole integrals
         stored in file 35.

  ==> Integral Setup <==

 MINTS: Wrapper to libmints.
   by Justin Turney

   Calculation information:
      Number of atoms:                   3
      Number of AO shells:              12
      Number of SO shells:               9
      Number of primitives:             32
      Number of atomic orbitals:        25
      Number of basis functions:        24

      Number of irreps:                  4
      Integral cutoff                 0.00e+00
      Number of functions per irrep: [  11    2    4    7 ]

 OEINTS: Overlap, kinetic, potential, dipole, and quadrupole integrals
         stored in file 35.

      Computing two-electron integrals...done
      Computed 11616 non-zero two-electron integrals.
        Stored in file 33.

	Batch   1 pq = [       0,     107] index = [             0,5778]
  ==> DiskJK: Disk-Based J/K Matrices <==

    J tasked:                  Yes
    K tasked:                  Yes
    wK tasked:                  No
    Memory (MB):               183
    Schwarz Cutoff:          1E-12

  Minimum eigenvalue in the overlap matrix is 3.4377086883E-02.
  Using Symmetric Orthogonalization.
  SCF Guess: Core (One-Electron) Hamiltonian.

  ==> Iterations <==

                        Total Energy        Delta E     RMS |[F,P]|

    Occupation by irrep:
             A1    A2    B1    B2 
    DOCC [     3,    0,    0,    1 ]
    SOCC [     0,    0,    1,    0 ]

   @UHF iter   1:   -70.50134147082332   -7.05013e+01   2.02709e-01 
    Occupation by irrep:
             A1    A2    B1    B2 
    DOCC [     2,    0,    1,    1 ]
    SOCC [     1,    0,    0,    0 ]

   @UHF iter   2:   -73.30441536523429   -2.80307e+00   1.37220e-01 DIIS
   @UHF iter   3:   -75.49319491930333   -2.18878e+00   2.71199e-02 DIIS
   @UHF iter   4:   -75.54472854184654   -5.15336e-02   4.97242e-03 DIIS
   @UHF iter   5:   -75.54732999061831   -2.60145e-03   1.12719e-03 DIIS
   @UHF iter   6:   -75.54757950004678   -2.49509e-04   3.65881e-04 DIIS
   @UHF iter   7:   -75.54760691775472   -2.74177e-05   5.48477e-05 DIIS
   @UHF iter   8:   -75.54760748766358   -5.69909e-07   1.75686e-05 DIIS
   @UHF iter   9:   -75.54760756516512   -7.75015e-08   7.14612e-06 DIIS
   @UHF iter  10:   -75.54760758003233   -1.48672e-08   1.14386e-06 DIIS
   @UHF iter  11:   -75.54760758026543   -2.33101e-10   2.22188e-07 DIIS

  ==> Post-Iterations <==

   @Spin Contamination Metric:   3.281226195E-03
   @S^2 Expected:                7.500000000E-01
   @S^2 Observed:                7.532812262E-01
   @S   Expected:                5.000000000E-01
   @S   Observed:                5.000000000E-01

    Orbital Energies (a.u.)
    -----------------------

    Alpha Occupied:                                                       

       1A1   -21.118477     2A1    -1.886374     1B2    -1.207710  
       3A1    -1.195543     1B1    -1.021820  

    Alpha Virtual:                                                        

       4A1    -0.134727     2B2    -0.059833     3B2     0.368773  
       5A1     0.444559     6A1     0.667018     2B1     0.737064  
       4B2     0.825463     7A1     0.997639     1A2     1.058589  
       3B1     1.246198     8A1     1.408419     5B2     1.513061  
       6B2     1.976313     9A1     2.025563     4B1     2.733334  
       2A2     2.828234    10A1     2.944279    11A1     3.357675  
       7B2     3.606614  

    Beta Occupied:                                                        

       1A1   -21.076328     2A1    -1.746913     1B2    -1.164772  
       1B1    -0.966272  

    Beta Virtual:                                                         

       3A1    -0.406862     4A1    -0.112982     2B2    -0.042718  
       3B2     0.416520     5A1     0.477843     2B1     0.762202  
       6A1     0.809268     4B2     0.843362     7A1     1.048839  
       1A2     1.064014     3B1     1.277901     8A1     1.457742  
       5B2     1.526233     6B2     2.018805     9A1     2.051876  
       4B1     2.824153     2A2     2.853266    10A1     3.049953  
      11A1     3.391766     7B2     3.677250  

    Final Occupation by Irrep:
             A1    A2    B1    B2 
    DOCC [     2,    0,    1,    1 ]
    SOCC [     1,    0,    0,    0 ]

  Energy converged.

  @UHF Final Energy:   -75.54760758026543

   => Energetics <=

    Nuclear Repulsion Energy =              9.1681932603875733
    One-Electron Energy =                -118.0473915009752801
    Two-Electron Energy =                  33.3315906603222700
    DFT Exchange-Correlation Energy =       0.0000000000000000
    Empirical Dispersion Energy =           0.0000000000000000
    PCM Polarization Energy =               0.0000000000000000
    EFP Energy =                            0.0000000000000000
    Total Energy =                        -75.5476075802654350

    Alert: EFP and PCM quantities not currently incorporated into SCF psivars.

Properties will be evaluated at   0.000000,   0.000000,   0.000000 Bohr
  ==> Properties <==


Properties computed using the SCF density matrix

  Nuclear Dipole Moment: (a.u.)
     X:     0.0000      Y:     0.0000      Z:     0.9783

  Electronic Dipole Moment: (a.u.)
     X:     0.0000      Y:     0.0000      Z:    -0.1611

  Dipole Moment: (a.u.)
     X:     0.0000      Y:     0.0000      Z:     0.8172     Total:     0.8172

  Dipole Moment: (Debye)
     X:     0.0000      Y:     0.0000      Z:     2.0770     Total:     2.0770


  Saving occupied orbitals to File 180.

  UHF NO Occupations:
  HONO-2 :    1 B1 1.9995817
  HONO-1 :    2 A1 1.9991103
  HONO-0 :    3 A1 1.0000000
  LUNO+0 :    4 A1 0.0008897
  LUNO+1 :    2 B1 0.0004183
  LUNO+2 :    2 B2 0.0003328
  LUNO+3 :    5 A1 0.0000003


*** tstop() called on knut at Sat Nov 14 15:53:38 2015
Module time:
	user time   =       0.22 seconds =       0.00 minutes
	system time =       0.36 seconds =       0.01 minutes
	total time  =          0 seconds =       0.00 minutes
Total time:
	user time   =       0.22 seconds =       0.00 minutes
	system time =       0.36 seconds =       0.01 minutes
	total time  =          0 seconds =       0.00 minutes

*** tstart() called on knut
*** at Sat Nov 14 15:54:08 2015


         ---------------------------------------------------------
                                   SCF
            by Justin Turney, Rob Parrish, and Andy Simmonett
                              UHF Reference
                        1 Threads,    256 MiB Core
         ---------------------------------------------------------

  ==> Geometry <==

    Molecular point group: c2v
    Full point group: C2v

    Geometry (in Angstrom), charge = 1, multiplicity = 2:

       Center              X                  Y                   Z               Mass       
    ------------   -----------------  -----------------  -----------------  -----------------
           O          0.000000000000     0.000000000000    -0.065775570538    15.994914619560
           H          0.000000000000    -0.759061990794     0.521953018295     1.007825032070
           H          0.000000000000     0.759061990794     0.521953018295     1.007825032070

  Running in c2v symmetry.

  Rotational constants: A =     27.26297  B =     14.51533  C =      9.47217 [cm^-1]
  Rotational constants: A = 817323.20514  B = 435158.59817  C = 283968.37324 [MHz]
  Nuclear repulsion =    9.168193260387577

  Charge       = 1
  Multiplicity = 2
  Electrons    = 9
  Nalpha       = 5
  Nbeta        = 4

  ==> Algorithm <==

  SCF Algorithm Type is PK.
  DIIS enabled.
  MOM disabled.
  Fractional occupation disabled.
  Guess Type is CORE.
  Energy threshold   = 1.00e-08
  Density threshold  = 1.00e-08
  Integral threshold = 0.00e+00

  ==> Primary Basis <==

  Basis Set: CC-PVDZ
    Number of shells: 12
    Number of basis function: 24
    Number of Cartesian functions: 25
    Spherical Harmonics?: true
    Max angular momentum: 2

  ==> Pre-Iterations <==

   -------------------------------------------------------
    Irrep   Nso     Nmo     Nalpha   Nbeta   Ndocc  Nsocc
   -------------------------------------------------------
     A1        11      11       0       0       0       0
     A2         2       2       0       0       0       0
     B1         4       4       0       0       0       0
     B2         7       7       0       0       0       0
   -------------------------------------------------------
    Total      24      24       5       4       4       1
   -------------------------------------------------------

 OEINTS: Overlap, kinetic, potential, dipole, and quadrupole integrals
         stored in file 35.

  ==> Integral Setup <==

 MINTS: Wrapper to libmints.
   by Justin Turney

   Calculation information:
      Number of atoms:                   3
      Number of AO shells:              12
      Number of SO shells:               9
      Number of primitives:             32
      Number of atomic orbitals:        25
      Number of basis functions:        24

      Number of irreps:                  4
      Integral cutoff                 0.00e+00
      Number of functions per irrep: [  11    2    4    7 ]

 OEINTS: Overlap, kinetic, potential, dipole, and quadrupole integrals
         stored in file 35.

      Computing two-electron integrals...done
      Computed 11616 non-zero two-electron integrals.
        Stored in file 33.

	Batch   1 pq = [       0,     107] index = [             0,5778]
  ==> DiskJK: Disk-Based J/K Matrices <==

    J tasked:                  Yes
    K tasked:                  Yes
    wK tasked:                  No
    Memory (MB):               183
    Schwarz Cutoff:          1E-12

  Minimum eigenvalue in the overlap matrix is 3.4377086883E-02.
  Using Symmetric Orthogonalization.
  SCF Guess: Core (One-Electron) Hamiltonian.

  ==> Iterations <==

                        Total Energy        Delta E     RMS |[F,P]|

    Occupation by irrep:
             A1    A2    B1    B2 
    DOCC [     3,    0,    0,    1 ]
    SOCC [     0,    0,    1,    0 ]

   @UHF iter   1:   -70.50134147082329   -7.05013e+01   2.02709e-01 
    Occupation by irrep:
             A1    A2    B1    B2 
    DOCC [     2,    0,    1,    1 ]
    SOCC [     1,    0,    0,    0 ]

   @UHF iter   2:   -73.30441536523425   -2.80307e+00   1.37220e-01 DIIS
   @UHF iter   3:   -75.49319491930341   -2.18878e+00   2.71199e-02 DIIS
   @UHF iter   4:   -75.54472854184661   -5.15336e-02   4.97242e-03 DIIS
   @UHF iter   5:   -75.54732999061839   -2.60145e-03   1.12719e-03 DIIS
   @UHF iter   6:   -75.54757950004682   -2.49509e-04   3.65881e-04 DIIS
   @UHF iter   7:   -75.54760691775481   -2.74177e-05   5.48477e-05 DIIS
   @UHF iter   8:   -75.54760748766365   -5.69909e-07   1.75686e-05 DIIS
   @UHF iter   9:   -75.54760756516517   -7.75015e-08   7.14612e-06 DIIS
   @UHF iter  10:   -75.54760758003239   -1.48672e-08   1.14386e-06 DIIS
   @UHF iter  11:   -75.54760758026548   -2.33086e-10   2.22188e-07 DIIS
   @UHF iter  12:   -75.54760758027543   -9.94760e-12   3.44284e-08 DIIS
   @UHF iter  13:   -75.54760758027561   -1.84741e-13   4.84521e-09 DIIS

  ==> Post-Iterations <==

   @Spin Contamination Metric:   3.281222133E-03
   @S^2 Expected:                7.500000000E-01
   @S^2 Observed:                7.532812221E-01
   @S   Expected:                5.000000000E-01
   @S   Observed:                5.000000000E-01

    Orbital Energies (a.u.)
    -----------------------

    Alpha Occupied:                                                       

       1A1   -21.118478     2A1    -1.886374     1B2    -1.207710  
       3A1    -1.195543     1B1    -1.021820  

    Alpha Virtual:                                                        

       4A1    -0.134727     2B2    -0.059833     3B2     0.368773  
       5A1     0.444559     6A1     0.667018     2B1     0.737064  
       4B2     0.825463     7A1     0.997639     1A2     1.058589  
       3B1     1.246198     8A1     1.408419     5B2     1.513061  
       6B2     1.976313     9A1     2.025563     4B1     2.733333  
       2A2     2.828234    10A1     2.944279    11A1     3.357675  
       7B2     3.606613  

    Beta Occupied:                                                        

       1A1   -21.076329     2A1    -1.746913     1B2    -1.164772  
       1B1    -0.966272  

    Beta Virtual:                                                         

       3A1    -0.406862     4A1    -0.112983     2B2    -0.042718  
       3B2     0.416520     5A1     0.477843     2B1     0.762202  
       6A1     0.809268     4B2     0.843362     7A1     1.048839  
       1A2     1.064014     3B1     1.277901     8A1     1.457742  
       5B2     1.526233     6B2     2.018805     9A1     2.051876  
       4B1     2.824152     2A2     2.853266    10A1     3.049953  
      11A1     3.391766     7B2     3.677250  

    Final Occupation by Irrep:
             A1    A2    B1    B2 
    DOCC [     2,    0,    1,    1 ]
    SOCC [     1,    0,    0,    0 ]

  Energy converged.

  @UHF Final Energy:   -75.54760758027561

   => Energetics <=

    Nuclear Repulsion Energy =              9.1681932603875769
    One-Electron Energy =                -118.0473914355698497
    Two-Electron Energy =                  33.3315905949066575
    DFT Exchange-Correlation Energy =       0.0000000000000000
    Empirical Dispersion Energy =           0.0000000000000000
    PCM Polarization Energy =               0.0000000000000000
    EFP Energy =                            0.0000000000000000
    Total Energy =                        -75.5476075802756100

    Alert: EFP and PCM quantities not currently incorporated into SCF psivars.

Properties will be evaluated at   0.000000,   0.000000,   0.000000 Bohr
  ==> Properties <==


Properties computed using the SCF density matrix

  Nuclear Dipole Moment: (a.u.)
     X:     0.0000      Y:     0.0000      Z:     0.9783

  Electronic Dipole Moment: (a.u.)
     X:     0.0000      Y:     0.0000      Z:    -0.1611

  Dipole Moment: (a.u.)
     X:     0.0000      Y:     0.0000      Z:     0.8172     Total:     0.8172

  Dipole Moment: (Debye)
     X:     0.0000      Y:     0.0000      Z:     2.0770     Total:     2.0770


  Saving occupied orbitals to File 180.

  UHF NO Occupations:
  HONO-2 :    1 B1 1.9995817
  HONO-1 :    2 A1 1.9991103
  HONO-0 :    3 A1 1.0000000
  LUNO+0 :    4 A1 0.0008897
  LUNO+1 :    2 B1 0.0004183
  LUNO+2 :    2 B2 0.0003328
  LUNO+3 :    5 A1 0.0000003


*** tstop() called on knut at Sat Nov 14 15:54:08 2015
Module time:
	user time   =       0.23 seconds =       0.00 minutes
	system time =       0.39 seconds =       0.01 minutes
	total time  =          0 seconds =       0.00 minutes
Total time:
	user time   =      39.75 seconds =       0.66 minutes
	system time =      75.32 seconds =       1.26 minutes
	total time  =         30 seconds =       0.50 minutes

*** tstart() called on knut
*** at Sat Nov 14 15:54:08 2015


 ============================================================================== 
 ============================================================================== 
 ============================================================================== 

                       CEPA   
              Program Written by Ugur Bozkaya,
              Latest Revision June 25, 2014.

 ============================================================================== 
 ============================================================================== 
 ============================================================================== 

	RMS orbital gradient is changed to :     1.00e-05
	MAX orbital gradient is changed to :     3.16e-04
	MO spaces per irreps... 

	IRREP   FC   AOCC  BOCC  AVIR    BVIR  FV 
	==========================================
	  A1     0     3     2     8      9     0
	  A2     0     0     0     2      2     0
	  B1     0     1     1     3      3     0
	  B2     0     1     1     6      6     0
	==========================================

	Computing MP2 energy using SCF MOs (Canonical MP2)... 
	============================================================================== 
	Nuclear Repulsion Energy (a.u.)    :     9.16819326038758
	SCF Energy (a.u.)                  :   -75.54760758027561
	REF Energy (a.u.)                  :   -75.54760758027561
	Alpha-Alpha Contribution (a.u.)    :    -0.02456634517693
	Alpha-Beta Contribution (a.u.)     :    -0.11760367883082
	Beta-Beta Contribution (a.u.)      :    -0.01231916218241
	Scaled_SS Correlation Energy (a.u.):    -0.01229516911978
	Scaled_OS Correlation Energy (a.u.):    -0.14112441459698
	SCS-MP2 Total Energy (a.u.)        :   -75.70102716399235
	SOS-MP2 Total Energy (a.u.)        :   -75.70049236275567
	SCSN-MP2 Total Energy (a.u.)       :   -75.61252607322804
	SCS-MP2-VDW Total Energy (a.u.)    :   -75.71658304285873
	SOS-PI-MP2 Total Energy (a.u.)     :   -75.71225273063875
	MP2 Correlation Energy (a.u.)      :    -0.15448918619016
	MP2 Total Energy (a.u.)            :   -75.70209676646577
	============================================================================== 

  
 ============================================================================== 
 ================ Performing CEPA iterations... =============================== 
 ============================================================================== 

  Iter    E_corr           E_total            DE           T2 RMS        
  ----   -------------    ---------------    ----------   ----------    
   1     -0.1674300427    -75.7150376230     -1.29e-02     6.12e-06 
   2     -0.1714583353    -75.7190659156     -4.03e-03     2.37e-06 
   3     -0.1716628181    -75.7192703984     -2.04e-04     4.61e-07 
   4     -0.1716968554    -75.7193044356     -3.40e-05     1.18e-07 
   5     -0.1717042131    -75.7193117933     -7.36e-06     8.89e-08 
   6     -0.1717085860    -75.7193161662     -4.37e-06     5.13e-08 
   7     -0.1717085535    -75.7193161337      3.25e-08     2.15e-08 

 ============================================================================== 
 ======================== CEPA ITERATIONS ARE CONVERGED ======================= 
 ============================================================================== 

	============================================================================== 
	================ CEPA FINAL RESULTS ========================================== 
	============================================================================== 
	Nuclear Repulsion Energy (a.u.)    :     9.16819326038758
	SCF Energy (a.u.)                  :   -75.54760758027561
	REF Energy (a.u.)                  :   -75.54760758027561
	CEPA(0) Correlation Energy (a.u.)  :    -0.17170855346886
	CEPA(0) Total Energy (a.u.)        :   -75.71931613374447
	============================================================================== 


*** tstop() called on knut at Sat Nov 14 15:54:08 2015
Module time:
	user time   =       0.19 seconds =       0.00 minutes
	system time =       0.50 seconds =       0.01 minutes
	total time  =          0 seconds =       0.00 minutes
Total time:
	user time   =      39.94 seconds =       0.67 minutes
	system time =      75.83 seconds =       1.26 minutes
	total time  =         30 seconds =       0.50 minutes

*** PSI4 exiting successfully. Buy a developer a beer!
