    -----------------------------------------------------------------------
          Psi4: An Open-Source Ab Initio Electronic Structure Package
                              Psi4 0.3.179 Driver

                          Git: Rev {master} 382b88e 

    J. M. Turney, A. C. Simmonett, R. M. Parrish, E. G. Hohenstein,
    F. A. Evangelista, J. T. Fermann, B. J. Mintz, L. A. Burns, J. J. Wilke,
    M. L. Abrams, N. J. Russ, M. L. Leininger, C. L. Janssen, E. T. Seidl,
    W. D. Allen, H. F. Schaefer, R. A. King, E. F. Valeev, C. D. Sherrill,
    and T. D. Crawford, WIREs Comput. Mol. Sci. 2, 556-565 (2012)
    (doi: 10.1002/wcms.93)

                         Additional Contributions by
    A. E. DePrince, M. Saitow, U. Bozkaya, A. Yu. Sokolov
    -----------------------------------------------------------------------


    Psi4 started on: Wed Nov 11 16:18:44 2015

    Process ID:   5475
    PSI4DATADIR: /home/avcopan/Documents/code/github/psi4/lib
    Memory level set to 256.000 MB

  ==> Input File <==

--------------------------------------------------------------------------
molecule {
  1 2
  O 
  H 1 0.96
  H 1 0.96 2 104.5
}

set basis sto-3g
set reference uhf
set scf_type pk
set df_scf_guess false
energy('scf')


from h2o_alt import water_mp2_script

scfwfn = psi4.wavefunction()
mints  = psi4.MintsHelper()

water_mp2_script(scfwfn, mints)


set mp2_type conv
energy('mp2')
--------------------------------------------------------------------------

*** tstart() called on hal
*** at Wed Nov 11 16:18:45 2015


         ---------------------------------------------------------
                                   SCF
            by Justin Turney, Rob Parrish, and Andy Simmonett
                              UHF Reference
                        1 Threads,    256 MiB Core
         ---------------------------------------------------------

  ==> Geometry <==

    Molecular point group: c2v
    Full point group: C2v

    Geometry (in Angstrom), charge = 1, multiplicity = 2:

       Center              X                  Y                   Z               Mass       
    ------------   -----------------  -----------------  -----------------  -----------------
           O          0.000000000000     0.000000000000    -0.065775570538    15.994914619560
           H          0.000000000000    -0.759061990794     0.521953018295     1.007825032070
           H          0.000000000000     0.759061990794     0.521953018295     1.007825032070

  Running in c2v symmetry.

  Rotational constants: A =     27.26297  B =     14.51533  C =      9.47217 [cm^-1]
  Rotational constants: A = 817323.20514  B = 435158.59817  C = 283968.37324 [MHz]
  Nuclear repulsion =    9.168193260387573

  Charge       = 1
  Multiplicity = 2
  Electrons    = 9
  Nalpha       = 5
  Nbeta        = 4

  ==> Algorithm <==

  SCF Algorithm Type is PK.
  DIIS enabled.
  MOM disabled.
  Fractional occupation disabled.
  Guess Type is CORE.
  Energy threshold   = 1.00e-06
  Density threshold  = 1.00e-06
  Integral threshold = 0.00e+00

  ==> Primary Basis <==

  Basis Set: STO-3G
    Number of shells: 5
    Number of basis function: 7
    Number of Cartesian functions: 7
    Spherical Harmonics?: true
    Max angular momentum: 1

  ==> Pre-Iterations <==

   -------------------------------------------------------
    Irrep   Nso     Nmo     Nalpha   Nbeta   Ndocc  Nsocc
   -------------------------------------------------------
     A1         4       4       0       0       0       0
     A2         0       0       0       0       0       0
     B1         1       1       0       0       0       0
     B2         2       2       0       0       0       0
   -------------------------------------------------------
    Total       7       7       5       4       4       1
   -------------------------------------------------------

 OEINTS: Overlap, kinetic, potential, dipole, and quadrupole integrals
         stored in file 35.

  ==> Integral Setup <==

 MINTS: Wrapper to libmints.
   by Justin Turney

   Calculation information:
      Number of atoms:                   3
      Number of AO shells:               5
      Number of SO shells:               4
      Number of primitives:             15
      Number of atomic orbitals:         7
      Number of basis functions:         7

      Number of irreps:                  4
      Integral cutoff                 0.00e+00
      Number of functions per irrep: [   4    0    1    2 ]

 OEINTS: Overlap, kinetic, potential, dipole, and quadrupole integrals
         stored in file 35.

      Computing two-electron integrals...done
      Computed 138 non-zero two-electron integrals.
        Stored in file 33.

	Batch   1 pq = [       0,      14] index = [             0,105]
  ==> DiskJK: Disk-Based J/K Matrices <==

    J tasked:                  Yes
    K tasked:                  Yes
    wK tasked:                  No
    Memory (MB):               183
    Schwarz Cutoff:          1E-12

  Minimum eigenvalue in the overlap matrix is 3.4405295835E-01.
  Using Symmetric Orthogonalization.
  SCF Guess: Core (One-Electron) Hamiltonian.

  ==> Iterations <==

                        Total Energy        Delta E     RMS |[F,P]|

   @UHF iter   1:   -73.46471001966336   -7.34647e+01   2.09728e-01 
   @UHF iter   2:   -74.65335375554204   -1.18864e+00   1.61670e-02 DIIS
   @UHF iter   3:   -74.65647113556975   -3.11738e-03   2.73211e-03 DIIS
   @UHF iter   4:   -74.65664931221144   -1.78177e-04   1.20078e-03 DIIS
   @UHF iter   5:   -74.65669455272761   -4.52405e-05   4.51668e-04 DIIS
   @UHF iter   6:   -74.65670240211183   -7.84938e-06   7.71551e-05 DIIS
   @UHF iter   7:   -74.65670261711487   -2.15003e-07   2.05953e-05 DIIS
   @UHF iter   8:   -74.65670262361944   -6.50456e-09   1.32020e-06 DIIS
   @UHF iter   9:   -74.65670262366334   -4.38973e-11   1.66894e-07 DIIS

  ==> Post-Iterations <==

   @Spin Contamination Metric:   5.255775819E-03
   @S^2 Expected:                7.500000000E-01
   @S^2 Observed:                7.552557758E-01
   @S   Expected:                5.000000000E-01
   @S   Observed:                5.000000000E-01

    Orbital Energies (a.u.)
    -----------------------

    Alpha Occupied:                                                       

       1A1   -21.032774     2A1    -1.926378     1B2    -1.198780  
       1B1    -1.114179     3A1    -1.067276  

    Alpha Virtual:                                                        

       4A1     0.083696     2B2     0.197181  

    Beta Occupied:                                                        

       1A1   -21.001873     2A1    -1.756076     1B2    -1.156455  
       3A1    -1.007736  

    Beta Virtual:                                                         

       1B1    -0.225943     4A1     0.115936     2B2     0.217515  

    Final Occupation by Irrep:
             A1    A2    B1    B2 
    DOCC [     3,    0,    0,    1 ]
    SOCC [     0,    0,    1,    0 ]

  Energy converged.

  @UHF Final Energy:   -74.65670262366334

   => Energetics <=

    Nuclear Repulsion Energy =              9.1681932603875733
    One-Electron Energy =                -116.3882618772858564
    Two-Electron Energy =                  32.5633659932349673
    DFT Exchange-Correlation Energy =       0.0000000000000000
    Empirical Dispersion Energy =           0.0000000000000000
    PCM Polarization Energy =               0.0000000000000000
    EFP Energy =                            0.0000000000000000
    Total Energy =                        -74.6567026236633211

    Alert: EFP and PCM quantities not currently incorporated into SCF psivars.

Properties will be evaluated at   0.000000,   0.000000,   0.000000 Bohr
  ==> Properties <==


Properties computed using the SCF density matrix

  Nuclear Dipole Moment: (a.u.)
     X:     0.0000      Y:     0.0000      Z:     0.9783

  Electronic Dipole Moment: (a.u.)
     X:     0.0000      Y:     0.0000      Z:     0.0896

  Dipole Moment: (a.u.)
     X:     0.0000      Y:     0.0000      Z:     1.0679     Total:     1.0679

  Dipole Moment: (Debye)
     X:     0.0000      Y:     0.0000      Z:     2.7143     Total:     2.7143


  Saving occupied orbitals to File 180.

  UHF NO Occupations:
  HONO-2 :    1 B2 1.9988347
  HONO-1 :    3 A1 1.9985357
  HONO-0 :    1 B1 1.0000000
  LUNO+0 :    4 A1 0.0014643
  LUNO+1 :    2 B2 0.0011653


*** tstop() called on hal at Wed Nov 11 16:18:45 2015
Module time:
	user time   =       0.33 seconds =       0.01 minutes
	system time =       1.39 seconds =       0.02 minutes
	total time  =          0 seconds =       0.00 minutes
Total time:
	user time   =       0.33 seconds =       0.01 minutes
	system time =       1.39 seconds =       0.02 minutes
	total time  =          0 seconds =       0.00 minutes

*** tstart() called on hal
*** at Wed Nov 11 16:18:45 2015


         ---------------------------------------------------------
                                   SCF
            by Justin Turney, Rob Parrish, and Andy Simmonett
                              UHF Reference
                        1 Threads,    256 MiB Core
         ---------------------------------------------------------

  ==> Geometry <==

    Molecular point group: c2v
    Full point group: C2v

    Geometry (in Angstrom), charge = 1, multiplicity = 2:

       Center              X                  Y                   Z               Mass       
    ------------   -----------------  -----------------  -----------------  -----------------
           O          0.000000000000     0.000000000000    -0.065775570538    15.994914619560
           H          0.000000000000    -0.759061990794     0.521953018295     1.007825032070
           H          0.000000000000     0.759061990794     0.521953018295     1.007825032070

  Running in c2v symmetry.

  Rotational constants: A =     27.26297  B =     14.51533  C =      9.47217 [cm^-1]
  Rotational constants: A = 817323.20514  B = 435158.59817  C = 283968.37324 [MHz]
  Nuclear repulsion =    9.168193260387577

  Charge       = 1
  Multiplicity = 2
  Electrons    = 9
  Nalpha       = 5
  Nbeta        = 4

  ==> Algorithm <==

  SCF Algorithm Type is PK.
  DIIS enabled.
  MOM disabled.
  Fractional occupation disabled.
  Guess Type is CORE.
  Energy threshold   = 1.00e-08
  Density threshold  = 1.00e-08
  Integral threshold = 0.00e+00

  ==> Primary Basis <==

  Basis Set: STO-3G
    Number of shells: 5
    Number of basis function: 7
    Number of Cartesian functions: 7
    Spherical Harmonics?: true
    Max angular momentum: 1

  ==> Pre-Iterations <==

   -------------------------------------------------------
    Irrep   Nso     Nmo     Nalpha   Nbeta   Ndocc  Nsocc
   -------------------------------------------------------
     A1         4       4       0       0       0       0
     A2         0       0       0       0       0       0
     B1         1       1       0       0       0       0
     B2         2       2       0       0       0       0
   -------------------------------------------------------
    Total       7       7       5       4       4       1
   -------------------------------------------------------

 OEINTS: Overlap, kinetic, potential, dipole, and quadrupole integrals
         stored in file 35.

  ==> Integral Setup <==

 MINTS: Wrapper to libmints.
   by Justin Turney

   Calculation information:
      Number of atoms:                   3
      Number of AO shells:               5
      Number of SO shells:               4
      Number of primitives:             15
      Number of atomic orbitals:         7
      Number of basis functions:         7

      Number of irreps:                  4
      Integral cutoff                 0.00e+00
      Number of functions per irrep: [   4    0    1    2 ]

 OEINTS: Overlap, kinetic, potential, dipole, and quadrupole integrals
         stored in file 35.

      Computing two-electron integrals...done
      Computed 138 non-zero two-electron integrals.
        Stored in file 33.

	Batch   1 pq = [       0,      14] index = [             0,105]
  ==> DiskJK: Disk-Based J/K Matrices <==

    J tasked:                  Yes
    K tasked:                  Yes
    wK tasked:                  No
    Memory (MB):               183
    Schwarz Cutoff:          1E-12

  Minimum eigenvalue in the overlap matrix is 3.4405295835E-01.
  Using Symmetric Orthogonalization.
  SCF Guess: Core (One-Electron) Hamiltonian.

  ==> Iterations <==

                        Total Energy        Delta E     RMS |[F,P]|

   @UHF iter   1:   -73.46471001966320   -7.34647e+01   2.09728e-01 
   @UHF iter   2:   -74.65335375554191   -1.18864e+00   1.61670e-02 DIIS
   @UHF iter   3:   -74.65647113556963   -3.11738e-03   2.73211e-03 DIIS
   @UHF iter   4:   -74.65664931221139   -1.78177e-04   1.20078e-03 DIIS
   @UHF iter   5:   -74.65669455272752   -4.52405e-05   4.51668e-04 DIIS
   @UHF iter   6:   -74.65670240211170   -7.84938e-06   7.71551e-05 DIIS
   @UHF iter   7:   -74.65670261711476   -2.15003e-07   2.05953e-05 DIIS
   @UHF iter   8:   -74.65670262361932   -6.50456e-09   1.32020e-06 DIIS
   @UHF iter   9:   -74.65670262366318   -4.38547e-11   1.66894e-07 DIIS
   @UHF iter  10:   -74.65670262366407   -8.95284e-13   1.99333e-08 DIIS
   @UHF iter  11:   -74.65670262366409   -1.42109e-14   3.68260e-10 DIIS

  ==> Post-Iterations <==

   @Spin Contamination Metric:   5.255766918E-03
   @S^2 Expected:                7.500000000E-01
   @S^2 Observed:                7.552557669E-01
   @S   Expected:                5.000000000E-01
   @S   Observed:                5.000000000E-01

    Orbital Energies (a.u.)
    -----------------------

    Alpha Occupied:                                                       

       1A1   -21.032775     2A1    -1.926378     1B2    -1.198781  
       1B1    -1.114179     3A1    -1.067276  

    Alpha Virtual:                                                        

       4A1     0.083696     2B2     0.197181  

    Beta Occupied:                                                        

       1A1   -21.001873     2A1    -1.756076     1B2    -1.156455  
       3A1    -1.007736  

    Beta Virtual:                                                         

       1B1    -0.225943     4A1     0.115936     2B2     0.217515  

    Final Occupation by Irrep:
             A1    A2    B1    B2 
    DOCC [     3,    0,    0,    1 ]
    SOCC [     0,    0,    1,    0 ]

  Energy converged.

  @UHF Final Energy:   -74.65670262366409

   => Energetics <=

    Nuclear Repulsion Energy =              9.1681932603875769
    One-Electron Energy =                -116.3882627607992362
    Two-Electron Energy =                  32.5633668767475655
    DFT Exchange-Correlation Energy =       0.0000000000000000
    Empirical Dispersion Energy =           0.0000000000000000
    PCM Polarization Energy =               0.0000000000000000
    EFP Energy =                            0.0000000000000000
    Total Energy =                        -74.6567026236640885

    Alert: EFP and PCM quantities not currently incorporated into SCF psivars.

Properties will be evaluated at   0.000000,   0.000000,   0.000000 Bohr
  ==> Properties <==


Properties computed using the SCF density matrix

  Nuclear Dipole Moment: (a.u.)
     X:     0.0000      Y:     0.0000      Z:     0.9783

  Electronic Dipole Moment: (a.u.)
     X:     0.0000      Y:     0.0000      Z:     0.0896

  Dipole Moment: (a.u.)
     X:     0.0000      Y:     0.0000      Z:     1.0679     Total:     1.0679

  Dipole Moment: (Debye)
     X:     0.0000      Y:     0.0000      Z:     2.7143     Total:     2.7143


  Saving occupied orbitals to File 180.

  UHF NO Occupations:
  HONO-2 :    1 B2 1.9988347
  HONO-1 :    3 A1 1.9985357
  HONO-0 :    1 B1 1.0000000
  LUNO+0 :    4 A1 0.0014643
  LUNO+1 :    2 B2 0.0011653


*** tstop() called on hal at Wed Nov 11 16:18:45 2015
Module time:
	user time   =       0.26 seconds =       0.00 minutes
	system time =       0.63 seconds =       0.01 minutes
	total time  =          0 seconds =       0.00 minutes
Total time:
	user time   =       0.69 seconds =       0.01 minutes
	system time =       2.27 seconds =       0.04 minutes
	total time  =          0 seconds =       0.00 minutes

*** tstart() called on hal
*** at Wed Nov 11 16:18:45 2015


 ============================================================================== 
 ============================================================================== 
 ============================================================================== 

                       MP2   
              Program Written by Ugur Bozkaya,
              Latest Revision June 25, 2014.

 ============================================================================== 
 ============================================================================== 
 ============================================================================== 

	RMS orbital gradient is changed to :     1.00e-05
	MAX orbital gradient is changed to :     3.16e-04
	MO spaces per irreps... 

	IRREP   FC   AOCC  BOCC  AVIR    BVIR  FV 
	==========================================
	  A1     0     3     3     1      1     0
	  A2     0     0     0     0      0     0
	  B1     0     1     0     0      1     0
	  B2     0     1     1     1      1     0
	==========================================

	Computing MP2 energy using SCF MOs (Canonical MP2)... 
	============================================================================== 
	Nuclear Repulsion Energy (a.u.)    :     9.16819326038758
	SCF Energy (a.u.)                  :   -74.65670262366409
	REF Energy (a.u.)                  :   -74.65670262366409
	Alpha-Alpha Contribution (a.u.)    :    -0.00077060636508
	Alpha-Beta Contribution (a.u.)     :    -0.02613439724544
	Beta-Beta Contribution (a.u.)      :    -0.00087389306988
	Scaled_SS Correlation Energy (a.u.):    -0.00054816647832
	Scaled_OS Correlation Energy (a.u.):    -0.03136127669453
	SCS-MP2 Total Energy (a.u.)        :   -74.68861206683692
	SOS-MP2 Total Energy (a.u.)        :   -74.65670262366409
	SCSN-MP2 Total Energy (a.u.)       :   -74.65959694266961
	SCS-MP2-VDW Total Energy (a.u.)    :   -74.69097690185572
	SOS-PI-MP2 Total Energy (a.u.)     :   -74.69329077980771
	MP2 Correlation Energy (a.u.)      :    -0.02777889668040
	MP2 Total Energy (a.u.)            :   -74.68448152034449
	============================================================================== 

*** tstop() called on hal at Wed Nov 11 16:18:46 2015
Module time:
	user time   =       0.08 seconds =       0.00 minutes
	system time =       0.44 seconds =       0.01 minutes
	total time  =          1 seconds =       0.02 minutes
Total time:
	user time   =       0.80 seconds =       0.01 minutes
	system time =       2.91 seconds =       0.05 minutes
	total time  =          1 seconds =       0.02 minutes

*** PSI4 exiting successfully. Buy a developer a beer!
